<?xml version="1.0" encoding="UTF-8"?>

<!-- generated on 2026-03-13T17:03:37.013799+05:30 by Eclipse SUMO GUI 1.26.0
<sumoConfiguration xmlns:xsi="http://www.w3.org/2001/XMLSchema-instance" xsi:noNamespaceSchemaLocation="http://sumo.dlr.de/xsd/sumoConfiguration.xsd">

    <input>
        <net-file value="D:\ete maps\manhattan.net.xml"/>
        <route-files value="D:\ete maps\routes_bus.rou.xml,D:\ete maps\routes_moto.rou.xml,D:\ete maps\routes_car.rou.xml,D:\ete maps\routes_truck.rou.xml"/>
        <additional-files value="D:\ete maps\manhattan_additionals.add.xml"/>
    </input>

    <output>
        <tripinfo-output value="D:\ete maps\outputs/tripinfo.xml"/>
    </output>

    <time>
        <begin value="0"/>
        <end value="3600"/>
        <step-length value="0.1"/>
    </time>

    <gui_only>
        <gui-settings-file value="D:\ete maps\gui-settings.xml"/>
        <start value="true"/>
    </gui_only>

</sumoConfiguration>
-->

<tripinfos xmlns:xsi="http://www.w3.org/2001/XMLSchema-instance" xsi:noNamespaceSchemaLocation="http://sumo.dlr.de/xsd/tripinfo_file.xsd">
    <tripinfo id="moto_21" depart="21.00" departLane="194926854#0_0" departPos="2.30" departSpeed="0.00" departDelay="0.00" arrival="32.30" arrivalLane="125479721#0_1" arrivalPos="64.15" arrivalSpeed="24.19" duration="11.30" routeLength="117.10" waitingTime="0.00" waitingCount="0" stopTime="0.00" timeLoss="3.71" rerouteNo="0" devices="tripinfo_moto_21" vType="moto__motorcycle" speedFactor="0.87" vaporized=""/>
    <tripinfo id="moto_2" depart="2.00" departLane="542257982#0_0" departPos="2.30" departSpeed="0.00" departDelay="0.00" arrival="50.50" arrivalLane="542258060#0_0" arrivalPos="255.56" arrivalSpeed="14.40" duration="48.50" routeLength="602.09" waitingTime="1.50" waitingCount="1" stopTime="0.00" timeLoss="7.75" rerouteNo="0" devices="tripinfo_moto_2" vType="moto__motorcycle" speedFactor="1.05" vaporized=""/>
    <tripinfo id="car_2" depart="5.40" departLane="542257982#0_0" departPos="5.10" departSpeed="0.00" departDelay="0.08" arrival="65.50" arrivalLane="542258060#0_0" arrivalPos="255.56" arrivalSpeed="13.44" duration="60.10" routeLength="599.29" waitingTime="5.50" waitingCount="1" stopTime="0.00" timeLoss="16.49" rerouteNo="0" devices="tripinfo_car_2" vType="car__passenger" speedFactor="0.97" vaporized=""/>
    <tripinfo id="car_21" depart="55.90" departLane="194926854#0_0" departPos="5.10" departSpeed="0.00" departDelay="0.04" arrival="66.70" arrivalLane="125479721#0_0" arrivalPos="64.15" arrivalSpeed="19.53" duration="10.80" routeLength="114.30" waitingTime="0.00" waitingCount="0" stopTime="0.00" timeLoss="5.69" rerouteNo="0" devices="tripinfo_car_21" vType="car__passenger" speedFactor="1.24" vaporized=""/>
    <tripinfo id="moto_33" depart="33.00" departLane="1320234484#0_0" departPos="2.30" departSpeed="0.00" departDelay="0.00" arrival="72.10" arrivalLane="1320234484#3_0" arrivalPos="414.94" arrivalSpeed="13.01" duration="39.10" routeLength="487.71" waitingTime="0.00" waitingCount="0" stopTime="0.00" timeLoss="2.12" rerouteNo="0" devices="tripinfo_moto_33" vType="moto__motorcycle" speedFactor="1.18" vaporized=""/>
    <tripinfo id="moto_30" depart="30.00" departLane="569345540#0_0" departPos="2.30" departSpeed="0.00" departDelay="0.00" arrival="72.20" arrivalLane="1413518738_0" arrivalPos="0.20" arrivalSpeed="2.64" duration="42.20" routeLength="237.95" waitingTime="3.80" waitingCount="1" stopTime="0.00" timeLoss="6.48" rerouteNo="0" devices="tripinfo_moto_30" vType="moto__motorcycle" speedFactor="0.99" vaporized=""/>
    <tripinfo id="moto_49" depart="49.00" departLane="569345544#0_0" departPos="2.30" departSpeed="0.00" departDelay="0.00" arrival="74.80" arrivalLane="569345545#0_1" arrivalPos="27.54" arrivalSpeed="12.18" duration="25.80" routeLength="234.41" waitingTime="1.10" waitingCount="3" stopTime="0.00" timeLoss="6.65" rerouteNo="0" devices="tripinfo_moto_49" vType="moto__motorcycle" speedFactor="1.10" vaporized=""/>
    <tripinfo id="moto_6" depart="6.00" departLane="-1320290376#1_0" departPos="2.30" departSpeed="0.00" departDelay="0.00" arrival="76.00" arrivalLane="1207834766#0_0" arrivalPos="26.98" arrivalSpeed="12.00" duration="70.00" routeLength="466.65" waitingTime="24.00" waitingCount="3" stopTime="0.00" timeLoss="31.30" rerouteNo="0" devices="tripinfo_moto_6" vType="moto__motorcycle" speedFactor="1.09" vaporized=""/>
    <tripinfo id="moto_8" depart="8.00" departLane="1198594029#0_0" departPos="2.30" departSpeed="0.00" departDelay="0.00" arrival="76.80" arrivalLane="464516471#9_2" arrivalPos="68.47" arrivalSpeed="26.50" duration="68.80" routeLength="806.91" waitingTime="8.40" waitingCount="2" stopTime="0.00" timeLoss="33.30" rerouteNo="0" devices="tripinfo_moto_8" vType="moto__motorcycle" speedFactor="1.05" vaporized=""/>
    <tripinfo id="car_6" depart="16.00" departLane="-1320290376#1_0" departPos="5.10" departSpeed="0.00" departDelay="0.04" arrival="77.00" arrivalLane="1207834766#0_1" arrivalPos="26.98" arrivalSpeed="11.49" duration="61.00" routeLength="463.85" waitingTime="3.70" waitingCount="2" stopTime="0.00" timeLoss="20.46" rerouteNo="0" devices="tripinfo_car_6" vType="car__passenger" speedFactor="1.04" vaporized=""/>
    <tripinfo id="car_8" depart="21.30" departLane="1198594029#0_0" departPos="5.10" departSpeed="0.00" departDelay="0.02" arrival="78.10" arrivalLane="464516471#9_1" arrivalPos="68.47" arrivalSpeed="20.69" duration="56.80" routeLength="804.11" waitingTime="0.00" waitingCount="0" stopTime="0.00" timeLoss="23.24" rerouteNo="0" devices="tripinfo_car_8" vType="car__passenger" speedFactor="1.10" vaporized=""/>
    <tripinfo id="moto_5" depart="5.00" departLane="1198594029#0_0" departPos="2.30" departSpeed="0.00" departDelay="0.00" arrival="81.50" arrivalLane="438397345#0_0" arrivalPos="69.26" arrivalSpeed="23.53" duration="76.50" routeLength="1119.33" waitingTime="12.60" waitingCount="2" stopTime="0.00" timeLoss="19.96" rerouteNo="0" devices="tripinfo_moto_5" vType="moto__motorcycle" speedFactor="0.86" vaporized=""/>
    <tripinfo id="car_5" depart="13.30" departLane="1198594029#0_0" departPos="5.10" departSpeed="0.00" departDelay="0.00" arrival="86.40" arrivalLane="438397345#0_0" arrivalPos="69.26" arrivalSpeed="25.47" duration="73.10" routeLength="1116.53" waitingTime="0.00" waitingCount="0" stopTime="0.00" timeLoss="29.43" rerouteNo="0" devices="tripinfo_car_5" vType="car__passenger" speedFactor="1.10" vaporized=""/>
    <tripinfo id="moto_29" depart="29.00" departLane="1198594027#0_0" departPos="2.30" departSpeed="0.00" departDelay="0.00" arrival="89.40" arrivalLane="803047267#0_0" arrivalPos="75.94" arrivalSpeed="12.81" duration="60.40" routeLength="631.48" waitingTime="3.00" waitingCount="3" stopTime="0.00" timeLoss="14.69" rerouteNo="0" devices="tripinfo_moto_29" vType="moto__motorcycle" speedFactor="1.17" vaporized=""/>
    <tripinfo id="car_16" depart="42.60" departLane="505317789_0" departPos="5.10" departSpeed="0.00" departDelay="0.04" arrival="93.10" arrivalLane="-167922076#2_1" arrivalPos="36.87" arrivalSpeed="12.76" duration="50.50" routeLength="602.76" waitingTime="0.00" waitingCount="0" stopTime="0.00" timeLoss="11.09" rerouteNo="0" devices="tripinfo_car_16" vType="car__passenger" speedFactor="1.15" vaporized=""/>
    <tripinfo id="moto_16" depart="16.00" departLane="505317789_0" departPos="2.30" departSpeed="0.00" departDelay="0.00" arrival="93.20" arrivalLane="-167922076#2_0" arrivalPos="36.87" arrivalSpeed="11.34" duration="77.20" routeLength="605.56" waitingTime="24.60" waitingCount="2" stopTime="0.00" timeLoss="32.50" rerouteNo="0" devices="tripinfo_moto_16" vType="moto__motorcycle" speedFactor="1.02" vaporized=""/>
    <tripinfo id="moto_19" depart="19.00" departLane="1031879418#0_0" departPos="2.30" departSpeed="0.00" departDelay="0.00" arrival="93.40" arrivalLane="1320290376#0_0" arrivalPos="53.48" arrivalSpeed="9.72" duration="74.40" routeLength="691.31" waitingTime="6.00" waitingCount="2" stopTime="0.00" timeLoss="17.18" rerouteNo="0" devices="tripinfo_moto_19" vType="moto__motorcycle" speedFactor="0.89" vaporized=""/>
    <tripinfo id="moto_3" depart="3.00" departLane="569345540#0_0" departPos="2.30" departSpeed="0.00" departDelay="0.00" arrival="93.50" arrivalLane="1027189507#0_0" arrivalPos="70.88" arrivalSpeed="9.77" duration="90.50" routeLength="570.93" waitingTime="23.90" waitingCount="3" stopTime="0.00" timeLoss="31.51" rerouteNo="0" devices="tripinfo_moto_3" vType="moto__motorcycle" speedFactor="0.89" vaporized=""/>
    <tripinfo id="car_3" depart="8.00" departLane="569345540#0_0" departPos="5.10" departSpeed="0.00" departDelay="0.02" arrival="95.40" arrivalLane="1027189507#0_0" arrivalPos="70.88" arrivalSpeed="10.66" duration="87.40" routeLength="568.13" waitingTime="9.80" waitingCount="1" stopTime="0.00" timeLoss="33.37" rerouteNo="0" devices="tripinfo_car_3" vType="car__passenger" speedFactor="0.96" vaporized=""/>
    <tripinfo id="truck_2" depart="40.00" departLane="542257982#0_0" departPos="7.20" departSpeed="0.00" departDelay="0.00" arrival="99.50" arrivalLane="542258060#0_0" arrivalPos="255.56" arrivalSpeed="13.45" duration="59.50" routeLength="597.19" waitingTime="0.00" waitingCount="0" stopTime="0.00" timeLoss="16.07" rerouteNo="0" devices="tripinfo_truck_2" vType="truck__truck" speedFactor="0.97" vaporized=""/>
    <tripinfo id="moto_103" depart="103.00" departLane="968513231#0_0" departPos="2.30" departSpeed="0.00" departDelay="0.00" arrival="108.20" arrivalLane="968513231#0_0" arrivalPos="66.77" arrivalSpeed="24.40" duration="5.20" routeLength="64.47" waitingTime="0.00" waitingCount="0" stopTime="0.00" timeLoss="2.92" rerouteNo="0" devices="tripinfo_moto_103" vType="moto__motorcycle" speedFactor="1.03" vaporized=""/>
    <tripinfo id="moto_65" depart="65.00" departLane="420908138#0_0" departPos="2.30" departSpeed="0.00" departDelay="0.00" arrival="109.40" arrivalLane="5670867#0_0" arrivalPos="300.29" arrivalSpeed="28.31" duration="44.40" routeLength="574.95" waitingTime="16.50" waitingCount="1" stopTime="0.00" timeLoss="24.06" rerouteNo="0" devices="tripinfo_moto_65" vType="moto__motorcycle" speedFactor="1.02" vaporized=""/>
    <tripinfo id="moto_10" depart="10.30" departLane="5672464#0_0" departPos="2.30" departSpeed="0.00" departDelay="0.30" arrival="109.90" arrivalLane="5670225#0_0" arrivalPos="143.60" arrivalSpeed="27.42" duration="99.60" routeLength="999.32" waitingTime="34.60" waitingCount="3" stopTime="0.00" timeLoss="50.11" rerouteNo="0" devices="tripinfo_moto_10" vType="moto__motorcycle" speedFactor="0.99" vaporized=""/>
    <tripinfo id="moto_11" depart="11.00" departLane="167922072#0_0" departPos="2.30" departSpeed="0.00" departDelay="0.00" arrival="110.60" arrivalLane="1117867038#0_0" arrivalPos="250.13" arrivalSpeed="25.71" duration="99.60" routeLength="920.98" waitingTime="21.80" waitingCount="2" stopTime="0.00" timeLoss="36.23" rerouteNo="0" devices="tripinfo_moto_11" vType="moto__motorcycle" speedFactor="0.93" vaporized=""/>
    <tripinfo id="moto_12" depart="12.00" departLane="846142552#0_0" departPos="2.30" departSpeed="0.00" departDelay="0.00" arrival="111.10" arrivalLane="167922073#0_0" arrivalPos="254.31" arrivalSpeed="9.93" duration="99.10" routeLength="954.34" waitingTime="15.50" waitingCount="3" stopTime="0.00" timeLoss="26.94" rerouteNo="0" devices="tripinfo_moto_12" vType="moto__motorcycle" speedFactor="0.88" vaporized=""/>
    <tripinfo id="moto_28" depart="28.00" departLane="167922072#0_0" departPos="2.30" departSpeed="0.00" departDelay="0.00" arrival="111.10" arrivalLane="1320290376#0_0" arrivalPos="53.48" arrivalSpeed="11.23" duration="83.10" routeLength="815.84" waitingTime="6.80" waitingCount="1" stopTime="0.00" timeLoss="10.43" rerouteNo="0" devices="tripinfo_moto_28" vType="moto__motorcycle" speedFactor="1.01" vaporized=""/>
    <tripinfo id="moto_48" depart="48.00" departLane="420907908#0_0" departPos="2.30" departSpeed="0.00" departDelay="0.00" arrival="111.90" arrivalLane="1198594027#0_0" arrivalPos="253.93" arrivalSpeed="9.94" duration="63.90" routeLength="684.17" waitingTime="8.40" waitingCount="1" stopTime="0.00" timeLoss="19.94" rerouteNo="0" devices="tripinfo_moto_48" vType="moto__motorcycle" speedFactor="1.02" vaporized=""/>
    <tripinfo id="moto_35" depart="35.00" departLane="458177130#0_0" departPos="2.30" departSpeed="0.00" departDelay="0.00" arrival="112.00" arrivalLane="682360554#0_2" arrivalPos="68.27" arrivalSpeed="10.03" duration="77.00" routeLength="807.42" waitingTime="21.30" waitingCount="4" stopTime="0.00" timeLoss="39.30" rerouteNo="0" devices="tripinfo_moto_35" vType="moto__motorcycle" speedFactor="0.90" vaporized=""/>
    <tripinfo id="car_12" depart="32.00" departLane="846142552#0_0" departPos="5.10" departSpeed="0.00" departDelay="0.08" arrival="112.80" arrivalLane="167922073#0_0" arrivalPos="254.31" arrivalSpeed="12.20" duration="80.80" routeLength="956.69" waitingTime="0.00" waitingCount="0" stopTime="0.00" timeLoss="21.13" rerouteNo="0" devices="tripinfo_car_12" vType="car__passenger" speedFactor="1.07" vaporized=""/>
    <tripinfo id="car_11" depart="29.70" departLane="167922072#0_0" departPos="5.10" departSpeed="0.00" departDelay="0.44" arrival="116.50" arrivalLane="1117867038#0_0" arrivalPos="250.13" arrivalSpeed="26.81" duration="86.80" routeLength="918.18" waitingTime="2.00" waitingCount="1" stopTime="0.00" timeLoss="26.53" rerouteNo="0" devices="tripinfo_car_11" vType="car__passenger" speedFactor="0.97" vaporized=""/>
    <tripinfo id="moto_42" depart="42.00" departLane="846142552#0_0" departPos="2.30" departSpeed="0.00" departDelay="0.00" arrival="122.60" arrivalLane="569345544#0_0" arrivalPos="66.29" arrivalSpeed="10.86" duration="80.60" routeLength="847.30" waitingTime="21.90" waitingCount="4" stopTime="0.00" timeLoss="32.29" rerouteNo="0" devices="tripinfo_moto_42" vType="moto__motorcycle" speedFactor="1.00" vaporized=""/>
    <tripinfo id="moto_54" depart="56.00" departLane="-1136952921#1_0" departPos="2.30" departSpeed="0.00" departDelay="2.00" arrival="123.90" arrivalLane="167922070#0_2" arrivalPos="68.66" arrivalSpeed="11.37" duration="67.90" routeLength="551.72" waitingTime="13.40" waitingCount="2" stopTime="0.00" timeLoss="18.44" rerouteNo="0" devices="tripinfo_moto_54" vType="moto__motorcycle" speedFactor="1.02" vaporized=""/>
    <tripinfo id="moto_76" depart="76.00" departLane="542257982#0_0" departPos="2.30" departSpeed="0.00" departDelay="0.00" arrival="125.60" arrivalLane="542258060#0_0" arrivalPos="255.56" arrivalSpeed="14.32" duration="49.60" routeLength="602.09" waitingTime="2.50" waitingCount="1" stopTime="0.00" timeLoss="8.48" rerouteNo="0" devices="tripinfo_moto_76" vType="moto__motorcycle" speedFactor="1.03" vaporized=""/>
    <tripinfo id="moto_14" depart="14.00" departLane="5672464#0_0" departPos="2.30" departSpeed="0.00" departDelay="0.00" arrival="129.40" arrivalLane="5670867#0_0" arrivalPos="300.29" arrivalSpeed="25.93" duration="115.40" routeLength="1161.56" waitingTime="38.20" waitingCount="3" stopTime="0.00" timeLoss="56.91" rerouteNo="0" devices="tripinfo_moto_14" vType="moto__motorcycle" speedFactor="0.94" vaporized=""/>
    <tripinfo id="truck_3" depart="60.00" departLane="569345540#0_0" departPos="7.20" departSpeed="0.00" departDelay="0.00" arrival="129.70" arrivalLane="1027189507#0_0" arrivalPos="70.88" arrivalSpeed="7.45" duration="69.70" routeLength="566.03" waitingTime="0.00" waitingCount="0" stopTime="0.00" timeLoss="18.43" rerouteNo="0" devices="tripinfo_truck_3" vType="truck__truck" speedFactor="1.01" vaporized=""/>
    <tripinfo id="car_33" depart="87.80" departLane="1320234484#0_0" departPos="5.10" departSpeed="0.00" departDelay="0.02" arrival="130.50" arrivalLane="1320234484#3_0" arrivalPos="414.94" arrivalSpeed="12.24" duration="42.70" routeLength="484.91" waitingTime="0.00" waitingCount="0" stopTime="0.00" timeLoss="3.09" rerouteNo="0" devices="tripinfo_car_33" vType="car__passenger" speedFactor="1.10" vaporized=""/>
    <tripinfo id="moto_75" depart="75.00" departLane="226041027#0_0" departPos="2.30" departSpeed="0.00" departDelay="0.00" arrival="130.70" arrivalLane="397795464#0_0" arrivalPos="65.36" arrivalSpeed="11.87" duration="55.70" routeLength="598.53" waitingTime="8.50" waitingCount="2" stopTime="0.00" timeLoss="14.26" rerouteNo="0" devices="tripinfo_moto_75" vType="moto__motorcycle" speedFactor="1.09" vaporized=""/>
    <tripinfo id="moto_39" depart="39.00" departLane="5670124_0" departPos="2.30" departSpeed="0.00" departDelay="0.00" arrival="130.80" arrivalLane="195743344#0_0" arrivalPos="33.77" arrivalSpeed="11.57" duration="91.80" routeLength="890.85" waitingTime="30.20" waitingCount="4" stopTime="0.00" timeLoss="41.01" rerouteNo="0" devices="tripinfo_moto_39" vType="moto__motorcycle" speedFactor="1.04" vaporized=""/>
    <tripinfo id="car_4" depart="10.70" departLane="226041027#0_0" departPos="5.10" departSpeed="0.00" departDelay="0.06" arrival="131.10" arrivalLane="-1413518739#1_0" arrivalPos="3.96" arrivalSpeed="2.61" duration="120.40" routeLength="958.36" waitingTime="10.30" waitingCount="2" stopTime="0.00" timeLoss="38.40" rerouteNo="0" devices="tripinfo_car_4" vType="car__passenger" speedFactor="0.98" vaporized=""/>
    <tripinfo id="moto_41" depart="41.00" departLane="968513231#0_0" departPos="2.30" departSpeed="0.00" departDelay="0.00" arrival="131.20" arrivalLane="452322756#4_0" arrivalPos="263.75" arrivalSpeed="11.97" duration="90.20" routeLength="838.88" waitingTime="15.90" waitingCount="3" stopTime="0.00" timeLoss="26.84" rerouteNo="0" devices="tripinfo_moto_41" vType="moto__motorcycle" speedFactor="1.09" vaporized=""/>
    <tripinfo id="moto_27" depart="27.00" departLane="1207834766#0_0" departPos="2.30" departSpeed="0.00" departDelay="0.00" arrival="133.70" arrivalLane="-1413518739#1_0" arrivalPos="3.96" arrivalSpeed="3.21" duration="106.70" routeLength="690.78" waitingTime="26.40" waitingCount="4" stopTime="0.00" timeLoss="54.36" rerouteNo="0" devices="tripinfo_moto_27" vType="moto__motorcycle" speedFactor="1.15" vaporized=""/>
    <tripinfo id="car_30" depart="79.80" departLane="569345540#0_0" departPos="5.10" departSpeed="0.00" departDelay="0.00" arrival="134.50" arrivalLane="1413518738_0" arrivalPos="0.20" arrivalSpeed="2.63" duration="54.70" routeLength="235.15" waitingTime="10.80" waitingCount="1" stopTime="0.00" timeLoss="17.84" rerouteNo="0" devices="tripinfo_car_30" vType="car__passenger" speedFactor="0.96" vaporized=""/>
    <tripinfo id="moto_4" depart="4.00" departLane="226041027#0_0" departPos="2.30" departSpeed="0.00" departDelay="0.00" arrival="136.30" arrivalLane="-1413518739#1_0" arrivalPos="3.96" arrivalSpeed="2.59" duration="132.30" routeLength="961.16" waitingTime="22.70" waitingCount="3" stopTime="0.00" timeLoss="46.05" rerouteNo="0" devices="tripinfo_moto_4" vType="moto__motorcycle" speedFactor="0.94" vaporized=""/>
    <tripinfo id="car_19" depart="50.60" departLane="1031879418#0_0" departPos="5.10" departSpeed="0.00" departDelay="0.06" arrival="137.90" arrivalLane="1320290376#0_0" arrivalPos="53.48" arrivalSpeed="11.24" duration="87.30" routeLength="688.51" waitingTime="18.00" waitingCount="2" stopTime="0.00" timeLoss="37.36" rerouteNo="0" devices="tripinfo_car_19" vType="car__passenger" speedFactor="1.02" vaporized=""/>
    <tripinfo id="moto_0" depart="0.00" departLane="46482609#0_0" departPos="2.30" departSpeed="0.00" departDelay="0.00" arrival="138.60" arrivalLane="-1413518739#1_0" arrivalPos="3.96" arrivalSpeed="2.94" duration="138.60" routeLength="1240.67" waitingTime="0.00" waitingCount="0" stopTime="0.00" timeLoss="43.39" rerouteNo="0" devices="tripinfo_moto_0" vType="moto__motorcycle" speedFactor="1.06" vaporized=""/>
    <tripinfo id="car_0" depart="1.70" departLane="46482609#0_0" departPos="5.10" departSpeed="0.00" departDelay="1.70" arrival="141.30" arrivalLane="-1413518739#1_0" arrivalPos="3.96" arrivalSpeed="2.80" duration="139.60" routeLength="1237.87" waitingTime="0.00" waitingCount="0" stopTime="0.00" timeLoss="39.99" rerouteNo="0" devices="tripinfo_car_0" vType="car__passenger" speedFactor="1.01" vaporized=""/>
    <tripinfo id="moto_55" depart="55.00" departLane="-1320290376#1_0" departPos="2.30" departSpeed="0.00" departDelay="0.00" arrival="142.50" arrivalLane="803047266#0_0" arrivalPos="59.57" arrivalSpeed="13.46" duration="87.50" routeLength="745.01" waitingTime="1.20" waitingCount="1" stopTime="0.00" timeLoss="18.72" rerouteNo="0" devices="tripinfo_moto_55" vType="moto__motorcycle" speedFactor="0.97" vaporized=""/>
    <tripinfo id="moto_22" depart="22.00" departLane="1321771943#0_0" departPos="2.30" departSpeed="0.00" departDelay="0.00" arrival="143.20" arrivalLane="803047267#0_0" arrivalPos="75.94" arrivalSpeed="10.21" duration="121.20" routeLength="1035.96" waitingTime="8.80" waitingCount="2" stopTime="0.00" timeLoss="18.66" rerouteNo="0" devices="tripinfo_moto_22" vType="moto__motorcycle" speedFactor="0.92" vaporized=""/>
    <tripinfo id="car_35" depart="93.10" departLane="458177130#0_0" departPos="5.10" departSpeed="0.00" departDelay="0.00" arrival="144.70" arrivalLane="682360554#0_2" arrivalPos="68.27" arrivalSpeed="10.51" duration="51.60" routeLength="804.62" waitingTime="0.00" waitingCount="0" stopTime="0.00" timeLoss="15.98" rerouteNo="0" devices="tripinfo_car_35" vType="car__passenger" speedFactor="0.95" vaporized=""/>
    <tripinfo id="moto_104" depart="104.00" departLane="-167922076#2_0" departPos="2.30" departSpeed="0.00" departDelay="0.00" arrival="146.30" arrivalLane="125480075#0_0" arrivalPos="66.91" arrivalSpeed="11.78" duration="42.30" routeLength="426.48" waitingTime="0.00" waitingCount="0" stopTime="0.00" timeLoss="5.13" rerouteNo="0" devices="tripinfo_moto_104" vType="moto__motorcycle" speedFactor="1.06" vaporized=""/>
    <tripinfo id="moto_36" depart="36.00" departLane="195743209#0_0" departPos="2.30" departSpeed="0.00" departDelay="0.00" arrival="150.30" arrivalLane="127693103#0_0" arrivalPos="68.97" arrivalSpeed="26.37" duration="114.30" routeLength="958.31" waitingTime="30.00" waitingCount="3" stopTime="0.00" timeLoss="40.92" rerouteNo="0" devices="tripinfo_moto_36" vType="moto__motorcycle" speedFactor="1.03" vaporized=""/>
    <tripinfo id="moto_66" depart="66.00" departLane="1198594026#0_0" departPos="2.30" departSpeed="0.00" departDelay="0.00" arrival="151.10" arrivalLane="1413518738_0" arrivalPos="0.20" arrivalSpeed="2.76" duration="85.10" routeLength="605.52" waitingTime="0.00" waitingCount="0" stopTime="0.00" timeLoss="34.62" rerouteNo="0" devices="tripinfo_moto_66" vType="moto__motorcycle" speedFactor="1.02" vaporized=""/>
    <tripinfo id="car_10" depart="26.70" departLane="5672464#0_0" departPos="5.10" departSpeed="0.00" departDelay="0.10" arrival="152.10" arrivalLane="5670225#0_0" arrivalPos="143.60" arrivalSpeed="26.60" duration="125.40" routeLength="996.52" waitingTime="28.00" waitingCount="4" stopTime="0.00" timeLoss="80.47" rerouteNo="0" devices="tripinfo_car_10" vType="car__passenger" speedFactor="1.09" vaporized=""/>
    <tripinfo id="moto_98" depart="98.00" departLane="569345540#0_0" departPos="2.30" departSpeed="0.00" departDelay="0.00" arrival="152.80" arrivalLane="1320234484#3_0" arrivalPos="414.94" arrivalSpeed="10.76" duration="54.80" routeLength="565.71" waitingTime="0.00" waitingCount="0" stopTime="0.00" timeLoss="1.93" rerouteNo="0" devices="tripinfo_moto_98" vType="moto__motorcycle" speedFactor="0.97" vaporized=""/>
    <tripinfo id="moto_40" depart="40.00" departLane="-1413518738_0" departPos="0.20" departSpeed="0.00" departDelay="0.00" arrival="153.20" arrivalLane="194926851#0_0" arrivalPos="68.42" arrivalSpeed="11.56" duration="113.20" routeLength="622.09" waitingTime="59.20" waitingCount="6" stopTime="0.00" timeLoss="71.34" rerouteNo="0" devices="tripinfo_moto_40" vType="moto__motorcycle" speedFactor="1.04" vaporized=""/>
    <tripinfo id="moto_124" depart="124.00" departLane="-167922076#2_0" departPos="2.30" departSpeed="0.00" departDelay="0.00" arrival="156.00" arrivalLane="569345545#0_1" arrivalPos="27.54" arrivalSpeed="12.35" duration="32.00" routeLength="263.83" waitingTime="3.30" waitingCount="1" stopTime="0.00" timeLoss="10.32" rerouteNo="0" devices="tripinfo_moto_124" vType="moto__motorcycle" speedFactor="1.12" vaporized=""/>
    <tripinfo id="moto_57" depart="57.00" departLane="167922070#0_0" departPos="2.30" departSpeed="0.00" departDelay="0.00" arrival="156.70" arrivalLane="-542259076#2_0" arrivalPos="130.61" arrivalSpeed="12.34" duration="99.70" routeLength="887.17" waitingTime="24.10" waitingCount="2" stopTime="0.00" timeLoss="33.75" rerouteNo="0" devices="tripinfo_moto_57" vType="moto__motorcycle" speedFactor="1.12" vaporized=""/>
    <tripinfo id="car_29" depart="77.20" departLane="1198594027#0_0" departPos="5.10" departSpeed="0.00" departDelay="0.06" arrival="161.20" arrivalLane="803047267#0_0" arrivalPos="75.94" arrivalSpeed="10.08" duration="84.00" routeLength="628.68" waitingTime="12.30" waitingCount="2" stopTime="0.00" timeLoss="25.37" rerouteNo="0" devices="tripinfo_car_29" vType="car__passenger" speedFactor="0.91" vaporized=""/>
    <tripinfo id="moto_44" depart="44.00" departLane="1321771943#0_0" departPos="2.30" departSpeed="0.00" departDelay="0.00" arrival="163.10" arrivalLane="525729008#0_1" arrivalPos="253.52" arrivalSpeed="9.54" duration="119.10" routeLength="1068.85" waitingTime="0.00" waitingCount="0" stopTime="0.00" timeLoss="8.09" rerouteNo="0" devices="tripinfo_moto_44" vType="moto__motorcycle" speedFactor="0.88" vaporized=""/>
    <tripinfo id="car_49" depart="130.70" departLane="569345544#0_0" departPos="5.10" departSpeed="0.00" departDelay="0.36" arrival="166.60" arrivalLane="569345545#0_0" arrivalPos="27.54" arrivalSpeed="9.74" duration="35.90" routeLength="231.61" waitingTime="4.30" waitingCount="1" stopTime="0.00" timeLoss="12.30" rerouteNo="0" devices="tripinfo_car_49" vType="car__passenger" speedFactor="0.88" vaporized=""/>
    <tripinfo id="car_28" depart="74.80" departLane="167922072#0_0" departPos="5.10" departSpeed="0.00" departDelay="0.32" arrival="167.10" arrivalLane="1320290376#0_0" arrivalPos="53.48" arrivalSpeed="12.86" duration="92.30" routeLength="813.04" waitingTime="7.10" waitingCount="1" stopTime="0.00" timeLoss="29.08" rerouteNo="0" devices="tripinfo_car_28" vType="car__passenger" speedFactor="1.15" vaporized=""/>
    <tripinfo id="moto_69" depart="69.00" departLane="167922072#0_0" departPos="2.30" departSpeed="0.00" departDelay="0.00" arrival="168.60" arrivalLane="464516471#9_0" arrivalPos="68.47" arrivalSpeed="27.29" duration="99.60" routeLength="909.87" waitingTime="24.10" waitingCount="4" stopTime="0.00" timeLoss="45.18" rerouteNo="0" devices="tripinfo_moto_69" vType="moto__motorcycle" speedFactor="1.06" vaporized=""/>
    <tripinfo id="moto_7" depart="7.80" departLane="46482609#0_0" departPos="2.30" departSpeed="0.00" departDelay="0.80" arrival="169.60" arrivalLane="452322757#0_0" arrivalPos="23.45" arrivalSpeed="11.33" duration="161.80" routeLength="1226.42" waitingTime="17.70" waitingCount="1" stopTime="0.00" timeLoss="66.37" rerouteNo="0" devices="tripinfo_moto_7" vType="moto__motorcycle" speedFactor="1.03" vaporized=""/>
    <tripinfo id="car_27" depart="75.80" departLane="1207834766#0_0" departPos="5.10" departSpeed="0.00" departDelay="3.98" arrival="170.90" arrivalLane="-1413518739#1_0" arrivalPos="3.96" arrivalSpeed="2.68" duration="95.10" routeLength="693.13" waitingTime="3.10" waitingCount="2" stopTime="0.00" timeLoss="32.44" rerouteNo="0" devices="tripinfo_car_27" vType="car__passenger" speedFactor="0.97" vaporized=""/>
    <tripinfo id="moto_1" depart="1.00" departLane="1413159922#0_0" departPos="2.30" departSpeed="0.00" departDelay="0.00" arrival="171.80" arrivalLane="127693103#3_0" arrivalPos="65.11" arrivalSpeed="25.98" duration="170.80" routeLength="1035.79" waitingTime="55.70" waitingCount="5" stopTime="0.00" timeLoss="70.05" rerouteNo="0" devices="tripinfo_moto_1" vType="moto__motorcycle" speedFactor="0.94" vaporized=""/>
    <tripinfo id="moto_13" depart="13.00" departLane="1027189508#0_0" departPos="2.30" departSpeed="0.00" departDelay="0.00" arrival="172.10" arrivalLane="1049845754#0_1" arrivalPos="73.98" arrivalSpeed="9.73" duration="159.10" routeLength="1027.10" waitingTime="45.20" waitingCount="4" stopTime="0.00" timeLoss="69.40" rerouteNo="0" devices="tripinfo_moto_13" vType="moto__motorcycle" speedFactor="0.94" vaporized=""/>
    <tripinfo id="moto_135" depart="135.00" departLane="167922072#0_0" departPos="2.30" departSpeed="0.00" departDelay="0.00" arrival="173.20" arrivalLane="803047266#0_0" arrivalPos="59.57" arrivalSpeed="13.23" duration="38.20" routeLength="360.61" waitingTime="0.70" waitingCount="1" stopTime="0.00" timeLoss="4.02" rerouteNo="0" devices="tripinfo_moto_135" vType="moto__motorcycle" speedFactor="0.95" vaporized=""/>
    <tripinfo id="moto_77" depart="77.00" departLane="846142553#0_0" departPos="2.30" departSpeed="0.00" departDelay="0.00" arrival="174.10" arrivalLane="1049845754#0_1" arrivalPos="73.98" arrivalSpeed="9.88" duration="97.10" routeLength="752.34" waitingTime="17.30" waitingCount="3" stopTime="0.00" timeLoss="46.40" rerouteNo="0" devices="tripinfo_moto_77" vType="moto__motorcycle" speedFactor="1.00" vaporized=""/>
    <tripinfo id="moto_87" depart="87.00" departLane="195743209#0_0" departPos="2.30" departSpeed="0.00" departDelay="0.00" arrival="174.10" arrivalLane="1021047632#0_2" arrivalPos="28.00" arrivalSpeed="17.28" duration="87.10" routeLength="725.75" waitingTime="20.30" waitingCount="1" stopTime="0.00" timeLoss="29.06" rerouteNo="0" devices="tripinfo_moto_87" vType="moto__motorcycle" speedFactor="0.89" vaporized=""/>